 Gaussian 16, Revision C.01,
 Gaussian 16:  ES64L-G16RevC.01  3-Jul-2019

 -------------------------------------------------------------
 # opt B3LYP/6-311g* scrf=(solvent=water) int=ultrafine Nosymm
 -------------------------------------------------------------

 -------------------------------------
 PN ground state geometry optimization
 -------------------------------------
 Symbolic Z-matrix:
 Charge =  0 Multiplicity = 1

 SCF Done:  E(RB3LYP) =  -575.569499083     A.U. after   14 cycles
 SCF Done:  E(RB3LYP) =  -575.572363598     A.U. after   11 cycles
 SCF Done:  E(RB3LYP) =  -575.572537811     A.U. after   10 cycles
 SCF Done:  E(RB3LYP) =  -575.572550517     A.U. after    8 cycles
 SCF Done:  E(RB3LYP) =  -575.572551893     A.U. after    8 cycles
 Optimization completed.
    -- Stationary point found.

                          Input orientation:
 ---------------------------------------------------------------------
 Center     Atomic      Atomic             Coordinates (Angstroms)
 Number     Number       Type             X           Y           Z
 ---------------------------------------------------------------------
      1          8           0        0.915692    0.033085    0.050648
      2          6           0        4.367703   -1.164851    0.065590
      3          6           0        2.946914   -1.217281    0.059632
      4          6           0        5.118799   -2.376430    0.068933
      5          6           0        5.050543    0.087938    0.068269
      6          6           0        2.307962   -2.448627    0.057077
      7          6           0        4.423742   -3.610724    0.066137
      8          6           0        2.148864    0.039571    0.056253
      9          6           0        6.538577   -2.305772    0.074955
     10          6           0        4.264059    1.304268    0.064707
     11          6           0        6.438245    0.108221    0.074124
     12          6           0        3.043890   -3.644935    0.060313
     13          6           0        2.912531    1.289517    0.059051
     14          6           0        7.181906   -1.088856    0.077485
     15          1           0        1.223932   -2.469459    0.052547
     16          1           0        4.993237   -4.534830    0.068627
     17          1           0        7.110488   -3.228119    0.077544
     18          1           0        4.796813    2.251081    0.066692
     19          1           0        6.957978    1.061193    0.076142
     20          1           0        2.523404   -4.596159    0.058219
     21          1           0        2.335472    2.208092    0.056400
     22          1           0        8.265242   -1.045141    0.082064
 ---------------------------------------------------------------------

 Alpha  occ. eigenvalues --  -19.10053 -10.25933 -10.20187 -10.20164 -10.19996
 Alpha  occ. eigenvalues --  -10.19954 -10.19775 -10.19737 -10.19580 -10.19536
 Alpha  occ. eigenvalues --  -10.19334 -10.19003 -10.18945 -10.18268  -1.03490
 Alpha  occ. eigenvalues --   -0.90302  -0.84826  -0.83350  -0.77144  -0.76262
 Alpha  occ. eigenvalues --   -0.74872  -0.67201  -0.64019  -0.62932  -0.61589
 Alpha  occ. eigenvalues --   -0.53724  -0.53073  -0.52448  -0.51214  -0.48091
 Alpha  occ. eigenvalues --   -0.45761  -0.44780  -0.44271  -0.43307  -0.42439
 Alpha  occ. eigenvalues --   -0.41369  -0.40463  -0.39573  -0.39350  -0.35780
 Alpha  occ. eigenvalues --   -0.35420  -0.35225  -0.32216  -0.27724  -0.26763
 Alpha  occ. eigenvalues --   -0.26035  -0.23428
 Alpha virt. eigenvalues --   -0.10451  -0.03287  -0.02042  -0.00728   0.04887
 Alpha virt. eigenvalues --    0.06194   0.07030   0.08286   0.08794   0.09558
 Alpha virt. eigenvalues --    0.09985   0.11653   0.13201   0.14844   0.20496

 Mulliken charges:
               1
     1  O   -0.383138
     2  C   -0.012495
     3  C   -0.085860
     4  C    0.036759
     5  C    0.030752
     6  C   -0.166607
     7  C   -0.192638
     8  C    0.262319
     9  C   -0.195997
    10  C   -0.171311
    11  C   -0.197241
    12  C   -0.207204
    13  C   -0.282598
    14  C   -0.214429
    15  H    0.214717
    16  H    0.227296
    17  H    0.225765
    18  H    0.228063
    19  H    0.228303
    20  H    0.222875
    21  H    0.210386
    22  H    0.222286
 Sum of Mulliken charges =  -0.00000

 Dipole moment (field-independent basis, Debye):
    X=              6.2955    Y=             -1.7963    Z=              0.0274  Tot=              6.5468
 Quadrupole moment (field-independent basis, Debye-Ang):
   XX=            -32.4151   YY=            -59.6995   ZZ=            -84.5741
   XY=             -6.9718   XZ=              0.5172   YZ=             -0.1178

 Normal termination of Gaussian 16 at Mon Jun 10 14:08:51 2024.
