 Gaussian 16, Revision C.01,
 Gaussian 16:  ES64L-G16RevC.01  3-Jul-2019

 ----------------------------------------------------------------------
 # M062X/6-311g* TDA=(triplet,root=1) scrf=(solvent=water) int=ultrafin
 e Nosymm geom=checkpoint
 ----------------------------------------------------------------------

 ----------------------------
 PN triplet state calculation
 ----------------------------
 Structure from the checkpoint file:  "ground_state_opt.chk"
 Charge =  0 Multiplicity = 3

                          Input orientation:
 ---------------------------------------------------------------------
 Center     Atomic      Atomic             Coordinates (Angstroms)
 Number     Number       Type             X           Y           Z
 ---------------------------------------------------------------------
      1          8           0        0.915692    0.033085    0.050648
      2          6           0        4.367703   -1.164851    0.065590
      3          6           0        2.946914   -1.217281    0.059632
      4          6           0        5.118799   -2.376430    0.068933
      5          6           0        5.050543    0.087938    0.068269
      6          6           0        2.307962   -2.448627    0.057077
      7          6           0        4.423742   -3.610724    0.066137
      8          6           0        2.148864    0.039571    0.056253
      9          6           0        6.538577   -2.305772    0.074955
     10          6           0        4.264059    1.304268    0.064707
     11          6           0        6.438245    0.108221    0.074124
     12          6           0        3.043890   -3.644935    0.060313
     13          6           0        2.912531    1.289517    0.059051
     14          6           0        7.181906   -1.088856    0.077485
     15          1           0        1.223932   -2.469459    0.052547
     16          1           0        4.993237   -4.534830    0.068627
     17          1           0        7.110488   -3.228119    0.077544
     18          1           0        4.796813    2.251081    0.066692
     19          1           0        6.957978    1.061193    0.076142
     20          1           0        2.523404   -4.596159    0.058219
     21          1           0        2.335472    2.208092    0.056400
     22          1           0        8.265242   -1.045141    0.082064
 ---------------------------------------------------------------------

 SCF Done:  E(UM062X) =  -575.249089307     A.U. after   21 cycles

 Excitation energies and oscillator strengths:

 Excited state symmetry could not be determined.
 Excited State   1:  3.033-?Sym    0.8755 eV 1416.13 nm  f=0.0000  <S**2>=2.050
     44B -> 47B        0.90620
     44B -> 48B       -0.33713
     44B -> 51B        0.17209
 This state for optimization and/or second-order correction.
 Total Energy, E(CIS/TDA) =  -575.216914858
 Copying the excited state density for this state as the 1-particle RhoCI density.

 Excited state symmetry could not be determined.
 Excited State   2:  3.043-?Sym    1.3390 eV  925.93 nm  f=0.0067  <S**2>=2.064
     48A -> 49A        0.28084
     45B -> 47B       -0.35311
     46B -> 47B        0.87401

 Excited state symmetry could not be determined.
 Excited State   3:  3.052-?Sym    1.4783 eV  838.70 nm  f=0.0095  <S**2>=2.078
     48A -> 49A        0.13689
     48A -> 50A        0.22197
     45B -> 47B        0.89449
     46B -> 47B        0.30493

 Alpha  occ. eigenvalues --  -19.61348 -10.61585 -10.59078 -10.57554 -10.57288
 Alpha  occ. eigenvalues --  -10.57194 -10.57071 -10.56778 -10.56678 -10.56463
 Alpha  occ. eigenvalues --  -10.56009 -10.55940 -10.55909 -10.55356  -1.16963
 Alpha  occ. eigenvalues --   -1.01549  -0.95351  -0.94096  -0.87158  -0.85968
 Alpha  occ. eigenvalues --   -0.85232  -0.76171  -0.72667  -0.71657  -0.70266
 Alpha  occ. eigenvalues --   -0.61668  -0.60831  -0.60046  -0.59114  -0.55611
 Alpha  occ. eigenvalues --   -0.53042  -0.52309  -0.52108  -0.51095  -0.49492
 Alpha  occ. eigenvalues --   -0.48408  -0.47884  -0.47372  -0.45621  -0.43240
 Alpha  occ. eigenvalues --   -0.41442  -0.41316  -0.40492  -0.34148  -0.33949
 Alpha  occ. eigenvalues --   -0.32561  -0.31018  -0.18915
 Alpha virt. eigenvalues --   -0.00425  -0.00354   0.00652   0.08172   0.09594
 Alpha virt. eigenvalues --    0.10375   0.11930   0.12057   0.13095   0.13201
 Alpha virt. eigenvalues --    0.14959   0.16633   0.18287   0.23940   0.25265

  Beta  occ. eigenvalues --  -19.60622 -10.61605 -10.58962 -10.57579 -10.57303
  Beta  occ. eigenvalues --  -10.57024 -10.57019 -10.56816 -10.56544 -10.56304
  Beta  occ. eigenvalues --  -10.55981 -10.55911 -10.55812 -10.55235  -1.14948
  Beta  occ. eigenvalues --   -1.01007  -0.94720  -0.93226  -0.86430  -0.85581
  Beta  occ. eigenvalues --   -0.84190  -0.75180  -0.72238  -0.71052  -0.69699
  Beta  occ. eigenvalues --   -0.61000  -0.60375  -0.59555  -0.58408  -0.55018
  Beta  occ. eigenvalues --   -0.52441  -0.51446  -0.50603  -0.49669  -0.49026
  Beta  occ. eigenvalues --   -0.47512  -0.46811  -0.45214  -0.44381  -0.41021
  Beta  occ. eigenvalues --   -0.40881  -0.40847  -0.35542  -0.32771  -0.31624
  Beta  occ. eigenvalues --   -0.31130
  Beta virt. eigenvalues --   -0.16276  -0.04945   0.00633   0.02691   0.04762
  Beta virt. eigenvalues --    0.08248   0.09645   0.10405   0.12121   0.13225
  Beta virt. eigenvalues --    0.13850   0.15008   0.15499   0.16657   0.18399

 Mulliken charges and spin densities:
               1          2
     1  O   -0.386136   0.380854
     2  C   -0.050075  -0.040367
     3  C   -0.076365   0.112822
     4  C   -0.007878  -0.175515
     5  C    0.048573   0.244069
     6  C   -0.227333   0.238264
     7  C   -0.224591   0.306627
     8  C    0.227107   0.006401
     9  C   -0.186017   0.497672
    10  C   -0.230863   0.050948
    11  C   -0.226164   0.298666
    12  C   -0.227642  -0.071330
    13  C   -0.250517   0.303018
    14  C   -0.232623  -0.074600
    15  H    0.246246  -0.011758
    16  H    0.256284  -0.012540
    17  H    0.267645  -0.019731
    18  H    0.256294  -0.005026
    19  H    0.261662  -0.014242
    20  H    0.250853   0.000573
    21  H    0.253070  -0.014358
    22  H    0.258469  -0.000447
 Sum of Mulliken charges =  -0.00000   2.00000

 Dipole moment (field-independent basis, Debye):
    X=              6.8517    Y=             -1.3597    Z=              0.0296  Tot=              6.9854
 Quadrupole moment (field-independent basis, Debye-Ang):
   XX=            -26.0318   YY=            -60.5482   ZZ=            -85.5829
   XY=             -7.9693   XZ=              0.5745   YZ=             -0.1016

 Normal termination of Gaussian 16 at Mon Jun 10 14:45:41 2024.
