 Gaussian 16, Revision C.01,
 Gaussian 16:  ES64L-G16RevC.01  3-Jul-2019

 -------------------------------------------------------------
 # opt B3LYP/6-311g* scrf=(solvent=water) int=ultrafine Nosymm
 -------------------------------------------------------------

 ------------------------------------------
 Juglone ground state geometry optimization
 ------------------------------------------
 Symbolic Z-matrix:
 Charge =  0 Multiplicity = 1

 SCF Done:  E(RB3LYP) =  -610.496177877     A.U. after   13 cycles
 SCF Done:  E(RB3LYP) =  -610.497901133     A.U. after   12 cycles
 SCF Done:  E(RB3LYP) =  -610.498195885     A.U. after   11 cycles
 SCF Done:  E(RB3LYP) =  -610.498255783     A.U. after   10 cycles
 SCF Done:  E(RB3LYP) =  -610.498276028     A.U. after   10 cycles
 SCF Done:  E(RB3LYP) =  -610.498294401     A.U. after   10 cycles
 SCF Done:  E(RB3LYP) =  -610.498295154     A.U. after    8 cycles
 SCF Done:  E(RB3LYP) =  -610.498296652     A.U. after    8 cycles
 Optimization completed.
    -- Stationary point found.

                          Input orientation:
 ---------------------------------------------------------------------
 Center     Atomic      Atomic             Coordinates (Angstroms)
 Number     Number       Type             X           Y           Z
 ---------------------------------------------------------------------
      1          8           0        2.836991   -0.547317   -0.061914
      2          8           0        1.069306   -2.477287   -0.068300
      3          8           0       -2.974094    1.049885    0.063968
      4          6           0        0.448040   -0.188944   -0.015467
      5          6           0       -0.612179    0.749338    0.019594
      6          6           0        1.781310    0.279422   -0.028877
      7          6           0        0.167917   -1.627581   -0.037692
      8          6           0       -0.347828    2.110455    0.040474
      9          6           0       -2.027310    0.276968    0.034237
     10          6           0        2.031080    1.662089   -0.007238
     11          6           0        0.978965    2.559837    0.026854
     12          6           0       -1.243273   -2.063296   -0.022110
     13          6           0       -2.255583   -1.186676    0.010932
     14          1           0       -1.173469    2.810414    0.067132
     15          1           0        3.061311    1.998876   -0.018021
     16          1           0        1.186106    3.624053    0.043186
     17          1           0       -1.406798   -3.135419   -0.039215
     18          1           0       -3.292194   -1.505644    0.022297
     19          1           0        2.498572   -1.470391   -0.073429
 ---------------------------------------------------------------------

 Alpha  occ. eigenvalues --  -19.16029 -19.14015 -19.13078 -10.28956 -10.28332
 Alpha  occ. eigenvalues --  -10.26826 -10.21296 -10.21181 -10.21011 -10.20659
 Alpha  occ. eigenvalues --  -10.20193 -10.19519 -10.19429  -1.09221  -1.06537
 Alpha  occ. eigenvalues --   -1.06331  -0.89011  -0.84304  -0.78246  -0.77333
 Alpha  occ. eigenvalues --   -0.70548  -0.66156  -0.65159  -0.60787  -0.54639
 Alpha  occ. eigenvalues --   -0.54294  -0.53733  -0.51016  -0.48412  -0.46738
 Alpha  occ. eigenvalues --   -0.46403  -0.46251  -0.43743  -0.43249  -0.42643
 Alpha  occ. eigenvalues --   -0.41419  -0.40703  -0.39423  -0.37888  -0.35788
 Alpha  occ. eigenvalues --   -0.31139  -0.29422  -0.28479  -0.27903  -0.25093
 Alpha virt. eigenvalues --   -0.12937  -0.04547  -0.03467   0.03171   0.05581
 Alpha virt. eigenvalues --    0.06416   0.07278   0.08895   0.09594   0.11202
 Alpha virt. eigenvalues --    0.12468   0.16856   0.18157   0.19467   0.20887

 Mulliken charges:
               1
     1  O   -0.558873
     2  O   -0.402364
     3  O   -0.328306
     4  C   -0.171080
     5  C   -0.068867
     6  C    0.304853
     7  C    0.347838
     8  C   -0.174951
     9  C    0.276057
    10  C   -0.206522
    11  C   -0.185074
    12  C   -0.197821
    13  C   -0.214380
    14  H    0.221726
    15  H    0.231472
    16  H    0.231332
    17  H    0.239901
    18  H    0.238076
    19  H    0.416982
 Sum of Mulliken charges =  -0.00000

 Dipole moment (field-independent basis, Debye):
    X=             -0.0023    Y=              0.3848    Z=              0.0081  Tot=              0.3849
 Quadrupole moment (field-independent basis, Debye-Ang):
   XX=            -81.6147   YY=            -66.9139   ZZ=            -74.8465
   XY=             13.7720   XZ=              0.3666   YZ=             -0.0823

 Normal termination of Gaussian 16 at Fri Jun  7 15:59:12 2024.
