 Gaussian 16, Revision C.01,
 Gaussian 16:  ES64L-G16RevC.01  3-Jul-2019

 ----------------------------------------------------------------------
 # M062X/6-311g* TDA=(triplet,root=1) scrf=(solvent=water) int=ultrafin
 e Nosymm geom=checkpoint
 ----------------------------------------------------------------------

 ---------------------------------
 Juglone triplet state calculation
 ---------------------------------
 Structure from the checkpoint file:  "ground_state_opt.chk"
 Charge =  0 Multiplicity = 3

                          Input orientation:
 ---------------------------------------------------------------------
 Center     Atomic      Atomic             Coordinates (Angstroms)
 Number     Number       Type             X           Y           Z
 ---------------------------------------------------------------------
      1          8           0        2.836991   -0.547317   -0.061914
      2          8           0        1.069306   -2.477287   -0.068300
      3          8           0       -2.974094    1.049885    0.063968
      4          6           0        0.448040   -0.188944   -0.015467
      5          6           0       -0.612179    0.749338    0.019594
      6          6           0        1.781310    0.279422   -0.028877
      7          6           0        0.167917   -1.627581   -0.037692
      8          6           0       -0.347828    2.110455    0.040474
      9          6           0       -2.027310    0.276968    0.034237
     10          6           0        2.031080    1.662089   -0.007238
     11          6           0        0.978965    2.559837    0.026854
     12          6           0       -1.243273   -2.063296   -0.022110
     13          6           0       -2.255583   -1.186676    0.010932
     14          1           0       -1.173469    2.810414    0.067132
     15          1           0        3.061311    1.998876   -0.018021
     16          1           0        1.186106    3.624053    0.043186
     17          1           0       -1.406798   -3.135419   -0.039215
     18          1           0       -3.292194   -1.505644    0.022297
     19          1           0        2.498572   -1.470391   -0.073429
 ---------------------------------------------------------------------

 SCF Done:  E(UM062X) =  -610.168365443     A.U. after   22 cycles

 Excitation energies and oscillator strengths:

 Excited state symmetry could not be determined.
 Excited State   1:  3.033-?Sym    1.0489 eV 1182.07 nm  f=0.0011  <S**2>=2.050
     46A -> 47A        0.24351
     42B -> 45B        0.89686
     43B -> 45B        0.33355
 This state for optimization and/or second-order correction.
 Total Energy, E(CIS/TDA) =  -610.129820107
 Copying the excited state density for this state as the 1-particle RhoCI density.

 Excited state symmetry could not be determined.
 Excited State   2:  3.038-?Sym    1.1212 eV 1105.83 nm  f=0.0000  <S**2>=2.057
     41B -> 45B        0.19704
     44B -> 45B        0.94226
     44B -> 46B        0.21152

 Excited state symmetry could not be determined.
 Excited State   3:  3.041-?Sym    1.6287 eV  761.23 nm  f=0.0000  <S**2>=2.063
     41B -> 45B        0.93880
     41B -> 46B        0.22002
     44B -> 45B       -0.17669
     44B -> 46B       -0.10236

 Alpha  occ. eigenvalues --  -19.72164 -19.61088 -19.59665 -10.68715 -10.62744
 Alpha  occ. eigenvalues --  -10.61864 -10.61189 -10.59750 -10.59623 -10.58781
 Alpha  occ. eigenvalues --  -10.58677 -10.55149 -10.55018  -1.26009  -1.17077
 Alpha  occ. eigenvalues --   -1.16283  -1.01983  -0.93441  -0.90456  -0.88139
 Alpha  occ. eigenvalues --   -0.79378  -0.75885  -0.74110  -0.70541  -0.64269
 Alpha  occ. eigenvalues --   -0.62742  -0.61390  -0.58889  -0.57302  -0.56172
 Alpha  occ. eigenvalues --   -0.54632  -0.52910  -0.51544  -0.51377  -0.49755
 Alpha  occ. eigenvalues --   -0.49054  -0.48383  -0.46551  -0.45865  -0.45521
 Alpha  occ. eigenvalues --   -0.37241  -0.35465  -0.35123  -0.34316  -0.32939
 Alpha  occ. eigenvalues --   -0.20768
 Alpha virt. eigenvalues --   -0.04218  -0.01685   0.06731   0.08377   0.10464
 Alpha virt. eigenvalues --    0.11078   0.11452   0.12225   0.14796   0.15440
 Alpha virt. eigenvalues --    0.20543   0.22668   0.22927   0.24643   0.27043

  Beta  occ. eigenvalues --  -19.71645 -19.60567 -19.59131 -10.68621 -10.62706
  Beta  occ. eigenvalues --  -10.61858 -10.60994 -10.59671 -10.59515 -10.58742
  Beta  occ. eigenvalues --  -10.58713 -10.55133 -10.54987  -1.24505  -1.15684
  Beta  occ. eigenvalues --   -1.14869  -1.00969  -0.92862  -0.88830  -0.87834
  Beta  occ. eigenvalues --   -0.78419  -0.75132  -0.73476  -0.69883  -0.63523
  Beta  occ. eigenvalues --   -0.62180  -0.60812  -0.58095  -0.55659  -0.54022
  Beta  occ. eigenvalues --   -0.53439  -0.52125  -0.50555  -0.49357  -0.48118
  Beta  occ. eigenvalues --   -0.47976  -0.46004  -0.45045  -0.45025  -0.41189
  Beta  occ. eigenvalues --   -0.34265  -0.33968  -0.32845  -0.32121
  Beta virt. eigenvalues --   -0.18058  -0.05981   0.00136   0.01305   0.08470
  Beta virt. eigenvalues --    0.10181   0.10559   0.11674   0.12367   0.13215
  Beta virt. eigenvalues --    0.14808   0.15569   0.21212   0.23652   0.24605

 Mulliken charges and spin densities:
               1          2
     1  O   -0.501984   0.210911
     2  O   -0.499996   0.242677
     3  O   -0.425530   0.265369
     4  C   -0.148829   0.155753
     5  C   -0.127847   0.082190
     6  C    0.355001   0.196635
     7  C    0.323087   0.104298
     8  C   -0.078862   0.454293
     9  C    0.253285   0.048950
    10  C   -0.177508   0.223308
    11  C   -0.226679  -0.058647
    12  C   -0.268063   0.041115
    13  C   -0.286385   0.081807
    14  H    0.292136  -0.017874
    15  H    0.291686  -0.011231
    16  H    0.278231  -0.000825
    17  H    0.244227  -0.003852
    18  H    0.241775  -0.005149
    19  H    0.462256  -0.009730
 Sum of Mulliken charges =  -0.00000   2.00000

 Dipole moment (field-independent basis, Debye):
    X=              5.3349    Y=              4.5099    Z=             -0.0037  Tot=              6.9857
 Quadrupole moment (field-independent basis, Debye-Ang):
   XX=            -81.9711   YY=            -67.5358   ZZ=            -75.5881
   XY=             14.1067   XZ=              0.3419   YZ=             -0.1040

 Normal termination of Gaussian 16 at Fri Jun  7 16:27:09 2024.
