 Gaussian 16, Revision C.01,
 Gaussian 16:  ES64L-G16RevC.01  3-Jul-2019

 -------------------------------------------------------------
 # opt B3LYP/6-311g* scrf=(solvent=water) int=ultrafine Nosymm
 -------------------------------------------------------------

 -------------------------------------------------
 2-nitroanisole ground state geometry optimization
 -------------------------------------------------
 Symbolic Z-matrix:
 Charge =  0 Multiplicity = 1

 SCF Done:  E(RB3LYP) =  -551.402914314     A.U. after   14 cycles
 SCF Done:  E(RB3LYP) =  -551.402524334     A.U. after   12 cycles
 SCF Done:  E(RB3LYP) =  -551.405501072     A.U. after   12 cycles
 SCF Done:  E(RB3LYP) =  -551.407399300     A.U. after   12 cycles
 SCF Done:  E(RB3LYP) =  -551.408145970     A.U. after   13 cycles
 SCF Done:  E(RB3LYP) =  -551.408347891     A.U. after   11 cycles
 SCF Done:  E(RB3LYP) =  -551.408375202     A.U. after   10 cycles
 SCF Done:  E(RB3LYP) =  -551.408382301     A.U. after   10 cycles
 SCF Done:  E(RB3LYP) =  -551.408382865     A.U. after    9 cycles
 SCF Done:  E(RB3LYP) =  -551.408382982     A.U. after    8 cycles
 Optimization completed.
    -- Stationary point found.

                          Input orientation:
 ---------------------------------------------------------------------
 Center     Atomic      Atomic             Coordinates (Angstroms)
 Number     Number       Type             X           Y           Z
 ---------------------------------------------------------------------
      1          8           0        0.904043   -0.405925    0.194949
      2          8           0        2.738253   -2.045871   -0.816433
      3          8           0        1.796614   -3.648821   -1.923829
      4          7           0        1.820781   -2.497315   -1.490527
      5          6           0        0.280337   -0.573600   -0.983371
      6          6           0        0.696528   -1.624268   -1.835061
      7          6           0       -0.799695    0.211412   -1.413591
      8          6           0        0.052991   -1.876541   -3.046284
      9          6           0       -1.421738   -0.034093   -2.632731
     10          6           0       -1.002446   -1.077636   -3.457775
     11          6           0        0.425624    0.597170    1.099187
     12          1           0       -1.158908    1.019718   -0.791823
     13          1           0        0.402936   -2.700319   -3.653958
     14          1           0       -2.247967    0.599485   -2.936129
     15          1           0       -1.489284   -1.264991   -4.407015
     16          1           0        1.064804    0.519155    1.974713
     17          1           0        0.519984    1.594914    0.664940
     18          1           0       -0.612165    0.408356    1.382868
 ---------------------------------------------------------------------

 Alpha  occ. eigenvalues --  -19.17162 -19.15653 -19.15506 -14.55702 -10.27083
 Alpha  occ. eigenvalues --  -10.23957 -10.22826 -10.20238 -10.19871 -10.19212
 Alpha  occ. eigenvalues --  -10.18748  -1.23927  -1.09341  -1.06225  -0.89125
 Alpha  occ. eigenvalues --   -0.81555  -0.77763  -0.73069  -0.69836  -0.62570
 Alpha  occ. eigenvalues --   -0.60736  -0.56883  -0.54561  -0.53801  -0.52597
 Alpha  occ. eigenvalues --   -0.49780  -0.48730  -0.48446  -0.46344  -0.43543
 Alpha  occ. eigenvalues --   -0.40468  -0.40235  -0.38519  -0.35821  -0.34698
 Alpha  occ. eigenvalues --   -0.32163  -0.31863  -0.30538  -0.27977  -0.24955
 Alpha virt. eigenvalues --   -0.09368  -0.02105  -0.01059   0.04391   0.06084
 Alpha virt. eigenvalues --    0.08532   0.08828   0.11058   0.11837   0.12119
 Alpha virt. eigenvalues --    0.13743   0.13999   0.16107   0.21924   0.24610

 Mulliken charges:
               1
     1  O   -0.325296
     2  O   -0.291088
     3  O   -0.304701
     4  N    0.160319
     5  C    0.279035
     6  C    0.169939
     7  C   -0.294352
     8  C   -0.193842
     9  C   -0.175357
    10  C   -0.218312
    11  C   -0.480481
    12  H    0.255054
    13  H    0.244544
    14  H    0.229362
    15  H    0.225427
    16  H    0.246951
    17  H    0.236795
    18  H    0.236004
 Sum of Mulliken charges =  -0.00000

 Dipole moment (field-independent basis, Debye):
    X=             -5.2106    Y=              5.1291    Z=              0.0749  Tot=              7.3118
 Quadrupole moment (field-independent basis, Debye-Ang):
   XX=            -72.3569   YY=            -76.0535   ZZ=            -52.5330
   XY=              9.4869   XZ=              7.5527   YZ=             -1.5439

 Normal termination of Gaussian 16 at Fri Jun  7 15:13:59 2024.
