 Gaussian 16, Revision C.01,
 Gaussian 16:  ES64L-G16RevC.01  3-Jul-2019

 ----------------------------------------------------------------------
 # M062X/6-311g* TDA=(triplet,root=1) scrf=(solvent=water) int=ultrafin
 e Nosymm geom=checkpoint
 ----------------------------------------------------------------------

 ----------------------------------------
 2-nitroanisole triplet state calculation
 ----------------------------------------
 Structure from the checkpoint file:  "ground_state_opt.chk"
 Charge =  0 Multiplicity = 3

                          Input orientation:
 ---------------------------------------------------------------------
 Center     Atomic      Atomic             Coordinates (Angstroms)
 Number     Number       Type             X           Y           Z
 ---------------------------------------------------------------------
      1          8           0        0.904043   -0.405925    0.194949
      2          8           0        2.738253   -2.045871   -0.816433
      3          8           0        1.796614   -3.648821   -1.923829
      4          7           0        1.820781   -2.497315   -1.490527
      5          6           0        0.280337   -0.573600   -0.983371
      6          6           0        0.696528   -1.624268   -1.835061
      7          6           0       -0.799695    0.211412   -1.413591
      8          6           0        0.052991   -1.876541   -3.046284
      9          6           0       -1.421738   -0.034093   -2.632731
     10          6           0       -1.002446   -1.077636   -3.457775
     11          6           0        0.425624    0.597170    1.099187
     12          1           0       -1.158908    1.019718   -0.791823
     13          1           0        0.402936   -2.700319   -3.653958
     14          1           0       -2.247967    0.599485   -2.936129
     15          1           0       -1.489284   -1.264991   -4.407015
     16          1           0        1.064804    0.519155    1.974713
     17          1           0        0.519984    1.594914    0.664940
     18          1           0       -0.612165    0.408356    1.382868
 ---------------------------------------------------------------------

 SCF Done:  E(UM062X) =  -551.054791819     A.U. after   24 cycles

 Excitation energies and oscillator strengths:

 Excited state symmetry could not be determined.
 Excited State   1:  3.024-?Sym    0.9645 eV 1285.50 nm  f=0.0022  <S**2>=2.036
     41A -> 43A       -0.10403
     36B -> 40B       -0.32367
     37B -> 40B       -0.38588
     38B -> 40B        0.83491
     39B -> 40B        0.12725
 This state for optimization and/or second-order correction.
 Total Energy, E(CIS/TDA) =  -551.019347756
 Copying the excited state density for this state as the 1-particle RhoCI density.

 Excited state symmetry could not be determined.
 Excited State   2:  3.014-?Sym    1.4195 eV  873.44 nm  f=0.0014  <S**2>=2.021
     41A -> 42A        0.10604
     37B -> 40B        0.13161
     39B -> 40B        0.97133

 Excited state symmetry could not be determined.
 Excited State   3:  3.023-?Sym    1.5642 eV  792.63 nm  f=0.0065  <S**2>=2.034
     41A -> 42A        0.95461
     41A -> 43A       -0.12851
     37B -> 40B       -0.21447

 Alpha  occ. eigenvalues --  -19.72767 -19.59530 -19.59228 -14.92738 -10.66808
 Alpha  occ. eigenvalues --  -10.62805 -10.61126 -10.60617 -10.58571 -10.57233
 Alpha  occ. eigenvalues --  -10.57081  -1.31645  -1.25842  -1.12988  -1.01656
 Alpha  occ. eigenvalues --   -0.92156  -0.89754  -0.83887  -0.79339  -0.72418
 Alpha  occ. eigenvalues --   -0.70488  -0.64821  -0.61613  -0.61323  -0.60307
 Alpha  occ. eigenvalues --   -0.58543  -0.57299  -0.55837  -0.54279  -0.52042
 Alpha  occ. eigenvalues --   -0.49461  -0.48029  -0.46513  -0.44896  -0.44284
 Alpha  occ. eigenvalues --   -0.37292  -0.36350  -0.35519  -0.34807  -0.33358
 Alpha  occ. eigenvalues --   -0.17306
 Alpha virt. eigenvalues --   -0.01169   0.00301   0.07406   0.09135   0.11302
 Alpha virt. eigenvalues --    0.11998   0.14147   0.14882   0.15203   0.16492
 Alpha virt. eigenvalues --    0.17182   0.20683   0.24888   0.28440   0.29561

  Beta  occ. eigenvalues --  -19.72186 -19.59024 -19.58804 -14.92404 -10.66612
  Beta  occ. eigenvalues --  -10.62656 -10.61139 -10.60462 -10.58592 -10.57236
  Beta  occ. eigenvalues --  -10.56945  -1.30296  -1.24170  -1.11534  -1.00499
  Beta  occ. eigenvalues --   -0.90811  -0.88850  -0.83145  -0.77929  -0.71731
  Beta  occ. eigenvalues --   -0.69346  -0.63986  -0.60528  -0.59977  -0.57373
  Beta  occ. eigenvalues --   -0.56592  -0.55400  -0.54768  -0.53932  -0.51358
  Beta  occ. eigenvalues --   -0.47633  -0.46804  -0.46035  -0.43711  -0.40331
  Beta  occ. eigenvalues --   -0.35041  -0.34375  -0.32116  -0.31396
  Beta virt. eigenvalues --   -0.17540  -0.01105   0.02196   0.06599   0.07477
  Beta virt. eigenvalues --    0.09104   0.11519   0.12326   0.14119   0.14813
  Beta virt. eigenvalues --    0.15252   0.17271   0.19243   0.21531   0.25679

 Mulliken charges and spin densities:
               1          2
     1  O   -0.263933   0.217780
     2  O   -0.439447   0.217758
     3  O   -0.454089   0.179564
     4  N    0.091366   0.193553
     5  C    0.280578   0.322205
     6  C    0.223620   0.289838
     7  C   -0.259594  -0.017329
     8  C   -0.253438  -0.003957
     9  C   -0.249756   0.246803
    10  C   -0.116878   0.379158
    11  C   -0.536376  -0.015211
    12  H    0.303469  -0.003620
    13  H    0.278666  -0.003776
    14  H    0.268194  -0.013544
    15  H    0.290687  -0.015973
    16  H    0.280518  -0.000078
    17  H    0.278156   0.013635
    18  H    0.278258   0.013195
 Sum of Mulliken charges =  -0.00000   2.00000

 Dipole moment (field-independent basis, Debye):
    X=             -9.4190    Y=              9.2232    Z=             -0.0425  Tot=             13.1828
 Quadrupole moment (field-independent basis, Debye-Ang):
   XX=            -79.8535   YY=            -89.5638   ZZ=            -46.0182
   XY=             20.6460   XZ=             15.6141   YZ=             -5.7967

 Normal termination of Gaussian 16 at Fri Jun  7 15:38:24 2024.
