 Gaussian 16, Revision C.01,
 Gaussian 16:  ES64L-G16RevC.01  3-Jul-2019

 -------------------------------------------------------------
 # opt B3LYP/6-311g* scrf=(solvent=water) int=ultrafine Nosymm
 -------------------------------------------------------------

 ------------------------------------------------
 4-nitrophenol ground state geometry optimization
 ------------------------------------------------
 Symbolic Z-matrix:
 Charge =  0 Multiplicity = 1

 SCF Done:  E(RB3LYP) =  -512.107486611     A.U. after   13 cycles
 SCF Done:  E(RB3LYP) =  -512.108884006     A.U. after   11 cycles
 SCF Done:  E(RB3LYP) =  -512.108362878     A.U. after   11 cycles
 SCF Done:  E(RB3LYP) =  -512.108896350     A.U. after   11 cycles
 SCF Done:  E(RB3LYP) =  -512.108980846     A.U. after   10 cycles
 Optimization completed.
    -- Stationary point found.

                          Input orientation:
 ---------------------------------------------------------------------
 Center     Atomic      Atomic             Coordinates (Angstroms)
 Number     Number       Type             X           Y           Z
 ---------------------------------------------------------------------
      1          8           0        2.241731    0.006123    0.016677
      2          8           0       -3.884724    1.198283   -0.030004
      3          8           0       -3.947250   -0.965598   -0.032784
      4          7           0       -3.332836    0.099523   -0.027130
      5          6           0       -1.875606    0.057922   -0.015969
      6          6           0       -1.155360    1.255002   -0.008986
      7          6           0       -1.226916   -1.176989   -0.012299
      8          6           0        0.891677   -0.021370    0.005638
      9          6           0        0.226734    1.214121    0.001727
     10          6           0        0.157497   -1.216557   -0.001463
     11          1           0       -1.682095    2.199177   -0.012203
     12          1           0       -1.806532   -2.089614   -0.018024
     13          1           0        0.810888    2.126429    0.007064
     14          1           0        0.672503   -2.171391    0.001294
     15          1           0        2.605298   -0.888842    0.015432
 ---------------------------------------------------------------------

 Alpha  occ. eigenvalues --  -19.17198 -19.15467 -19.15459 -14.55542 -10.26683
 Alpha  occ. eigenvalues --  -10.23502 -10.20704 -10.20589 -10.19681 -10.19378
 Alpha  occ. eigenvalues --   -1.23725  -1.09141  -1.06102  -0.89490  -0.81074
 Alpha  occ. eigenvalues --   -0.78157  -0.70782  -0.65162  -0.61190  -0.57679
 Alpha  occ. eigenvalues --   -0.56337  -0.54359  -0.52716  -0.49728  -0.47104
 Alpha  occ. eigenvalues --   -0.45467  -0.44093  -0.43755  -0.40753  -0.36872
 Alpha  occ. eigenvalues --   -0.36754  -0.32370  -0.32295  -0.30269  -0.28464
 Alpha  occ. eigenvalues --   -0.25636
 Alpha virt. eigenvalues --   -0.09596  -0.03304   0.00433   0.03886   0.05484
 Alpha virt. eigenvalues --    0.08163   0.11392   0.13164   0.14081   0.15930
 Alpha virt. eigenvalues --    0.19947   0.22409   0.24549   0.25418   0.28769

 Mulliken charges:
               1
     1  O   -0.559429
     2  O   -0.309210
     3  O   -0.309693
     4  N    0.161891
     5  C    0.210992
     6  C   -0.199838
     7  C   -0.200335
     8  C    0.299786
     9  C   -0.238467
    10  C   -0.267722
    11  H    0.247065
    12  H    0.248912
    13  H    0.235720
    14  H    0.243416
    15  H    0.436911
 Sum of Mulliken charges =  -0.00000

 Dipole moment (field-independent basis, Debye):
    X=              6.7858    Y=             -2.0785    Z=              0.0426  Tot=              7.0971
 Quadrupole moment (field-independent basis, Debye-Ang):
   XX=            -80.1127   YY=            -50.6366   ZZ=            -58.0450
   XY=             -4.3085   XZ=             -0.1994   YZ=             -0.0163

 Normal termination of Gaussian 16 at Fri Jun  7 16:38:13 2024.
