 Gaussian 16, Revision C.01,
 Gaussian 16:  ES64L-G16RevC.01  3-Jul-2019

 ----------------------------------------------------------------------
 # M062X/6-311g* TDA=(triplet,root=1) scrf=(solvent=water) int=ultrafin
 e Nosymm geom=checkpoint
 ----------------------------------------------------------------------

 ---------------------------------------
 4-nitrophenol triplet state calculation
 ---------------------------------------
 Structure from the checkpoint file:  "ground_state_opt.chk"
 Charge =  0 Multiplicity = 3

                          Input orientation:
 ---------------------------------------------------------------------
 Center     Atomic      Atomic             Coordinates (Angstroms)
 Number     Number       Type             X           Y           Z
 ---------------------------------------------------------------------
      1          8           0        2.241731    0.006123    0.016677
      2          8           0       -3.884724    1.198283   -0.030004
      3          8           0       -3.947250   -0.965598   -0.032784
      4          7           0       -3.332836    0.099523   -0.027130
      5          6           0       -1.875606    0.057922   -0.015969
      6          6           0       -1.155360    1.255002   -0.008986
      7          6           0       -1.226916   -1.176989   -0.012299
      8          6           0        0.891677   -0.021370    0.005638
      9          6           0        0.226734    1.214121    0.001727
     10          6           0        0.157497   -1.216557   -0.001463
     11          1           0       -1.682095    2.199177   -0.012203
     12          1           0       -1.806532   -2.089614   -0.018024
     13          1           0        0.810888    2.126429    0.007064
     14          1           0        0.672503   -2.171391    0.001294
     15          1           0        2.605298   -0.888842    0.015432
 ---------------------------------------------------------------------

 SCF Done:  E(UM062X) =  -511.778128028     A.U. after   21 cycles

 Excitation energies and oscillator strengths:

 Excited state symmetry could not be determined.
 Excited State   1:  3.040-?Sym    1.1697 eV 1059.95 nm  f=0.0014  <S**2>=2.060
     37A -> 38A       -0.19383
     33B -> 36B        0.82462
     35B -> 36B        0.50910
 This state for optimization and/or second-order correction.
 Total Energy, E(CIS/TDA) =  -511.735141505
 Copying the excited state density for this state as the 1-particle RhoCI density.

 Excited state symmetry could not be determined.
 Excited State   2:  3.018-?Sym    1.5226 eV  814.27 nm  f=0.0099  <S**2>=2.027
     37A -> 38A        0.39438
     33B -> 36B       -0.40387
     35B -> 36B        0.80822
     35B -> 37B        0.12019

 Excited state symmetry could not be determined.
 Excited State   3:  3.010-?Sym    1.5631 eV  793.20 nm  f=0.0000  <S**2>=2.015
     34B -> 36B        0.95039
     34B -> 37B        0.28179
     34B -> 40B       -0.11251

 Alpha  occ. eigenvalues --  -19.72022 -19.59949 -19.59886 -14.92895 -10.66299
 Alpha  occ. eigenvalues --  -10.64176 -10.59767 -10.59678 -10.57952 -10.57811
 Alpha  occ. eigenvalues --   -1.31996  -1.25482  -1.13414  -1.02206  -0.92410
 Alpha  occ. eigenvalues --   -0.89630  -0.80707  -0.75792  -0.70900  -0.67458
 Alpha  occ. eigenvalues --   -0.62768  -0.60561  -0.60547  -0.56394  -0.56106
 Alpha  occ. eigenvalues --   -0.55709  -0.53622  -0.52278  -0.50000  -0.46970
 Alpha  occ. eigenvalues --   -0.44846  -0.38120  -0.36610  -0.36002  -0.35691
 Alpha  occ. eigenvalues --   -0.34258  -0.18270
 Alpha virt. eigenvalues --   -0.01802   0.00850   0.06362   0.08465   0.11111
 Alpha virt. eigenvalues --    0.14354   0.16276   0.16625   0.20539   0.22186
 Alpha virt. eigenvalues --    0.24803   0.28465   0.31715   0.32285   0.34581

  Beta  occ. eigenvalues --  -19.71466 -19.59462 -19.59398 -14.92564 -10.66032
  Beta  occ. eigenvalues --  -10.63946 -10.59751 -10.59641 -10.57896 -10.57782
  Beta  occ. eigenvalues --   -1.30567  -1.23806  -1.11882  -1.00987  -0.90380
  Beta  occ. eigenvalues --   -0.89180  -0.79145  -0.75004  -0.69882  -0.66741
  Beta  occ. eigenvalues --   -0.61586  -0.59556  -0.56356  -0.55253  -0.54914
  Beta  occ. eigenvalues --   -0.53297  -0.51566  -0.51483  -0.49361  -0.44376
  Beta  occ. eigenvalues --   -0.41882  -0.35699  -0.34920  -0.33486  -0.31507
  Beta virt. eigenvalues --   -0.17685  -0.00752   0.00253   0.06528   0.07976
  Beta virt. eigenvalues --    0.08679   0.11143   0.14507   0.16353   0.19816
  Beta virt. eigenvalues --    0.21854   0.23259   0.25325   0.29330   0.32414

 Mulliken charges and spin densities:
               1          2
     1  O   -0.518825   0.198652
     2  O   -0.444730   0.214092
     3  O   -0.444046   0.213927
     4  N    0.084872   0.183627
     5  C    0.293147   0.457385
     6  C   -0.248809   0.066847
     7  C   -0.249146   0.116761
     8  C    0.279690   0.426869
     9  C   -0.182647   0.102107
    10  C   -0.209799   0.057223
    11  H    0.284646  -0.007324
    12  H    0.286566  -0.009297
    13  H    0.295001  -0.007150
    14  H    0.299225  -0.005550
    15  H    0.474854  -0.008170
 Sum of Mulliken charges =  -0.00000   2.00000

 Dipole moment (field-independent basis, Debye):
    X=             13.8002    Y=             -2.3014    Z=              0.0965  Tot=             13.9911
 Quadrupole moment (field-independent basis, Debye-Ang):
   XX=           -100.0556   YY=            -51.0687   ZZ=            -58.1075
   XY=             -3.8315   XZ=             -0.3614   YZ=             -0.0127

 Normal termination of Gaussian 16 at Fri Jun  7 16:54:18 2024.
