 Gaussian 16, Revision C.01,
 Gaussian 16:  ES64L-G16RevC.01  3-Jul-2019

 ------------------------------------------------------------
 #opt B3LYP/LANL2DZ scrf=(solvent=water) int=ultrafine Nosymm
 ------------------------------------------------------------

 ----------------------------------------------
 Rose Bengal ground state geometry optimization
 ----------------------------------------------
 Symbolic Z-matrix:
 Charge =  0 Multiplicity = 1

 SCF Done:  E(RB3LYP) =  -1245.69513961     A.U. after   15 cycles
 SCF Done:  E(RB3LYP) =  -1245.71064910     A.U. after   14 cycles
 SCF Done:  E(RB3LYP) =  -1245.71627832     A.U. after   14 cycles
 SCF Done:  E(RB3LYP) =  -1245.71859897     A.U. after   13 cycles
 SCF Done:  E(RB3LYP) =  -1245.72007213     A.U. after   13 cycles
 SCF Done:  E(RB3LYP) =  -1245.72062455     A.U. after   12 cycles
 SCF Done:  E(RB3LYP) =  -1245.72072319     A.U. after   12 cycles
 SCF Done:  E(RB3LYP) =  -1245.72069596     A.U. after   11 cycles
 SCF Done:  E(RB3LYP) =  -1245.72083864     A.U. after   11 cycles
 SCF Done:  E(RB3LYP) =  -1245.72086205     A.U. after   11 cycles
 SCF Done:  E(RB3LYP) =  -1245.72087976     A.U. after   11 cycles
 SCF Done:  E(RB3LYP) =  -1245.72088397     A.U. after    9 cycles
 SCF Done:  E(RB3LYP) =  -1245.72088526     A.U. after    9 cycles
 SCF Done:  E(RB3LYP) =  -1245.72088537     A.U. after    8 cycles
 SCF Done:  E(RB3LYP) =  -1245.72088540     A.U. after    8 cycles
 Optimization completed.
    -- Stationary point found.

                          Input orientation:
 ---------------------------------------------------------------------
 Center     Atomic      Atomic             Coordinates (Angstroms)
 Number     Number       Type             X           Y           Z
 ---------------------------------------------------------------------
      1         53           0        1.013655    0.182276    0.031209
      2         53           0        1.134778    4.826966   -0.043237
      3         53           0        6.151117   -3.182730    0.023399
      4         53           0        6.438519    7.928411   -0.258731
      5         17           0        7.323262    2.228614   -2.860300
      6         17           0       10.687017    2.307702    2.579613
      7         17           0       10.523413    2.106754   -2.962752
      8         17           0       12.212426    2.152228   -0.237439
      9          8           0        3.269166    2.442599   -0.034625
     10          8           0        2.949106   -2.305673    0.034743
     11          8           0        3.295363    7.224883   -0.147909
     12          8           0        7.743683    3.533533    3.193330
     13          8           0        6.906371    1.472183    2.816343
     14          6           0        6.088455    2.393438   -0.075581
     15          6           0        5.340422    1.158767   -0.047122
     16          6           0        5.423070    3.616747   -0.093880
     17          6           0        7.590142    2.340750   -0.106019
     18          6           0        3.919274    1.217437   -0.028519
     19          6           0        3.967596    3.646004   -0.070394
     20          6           0        5.952931   -0.119764   -0.030905
     21          6           0        8.343949    2.383176    1.091738
     22          6           0        6.105273    4.891596   -0.151072
     23          6           0        3.124951    0.061886    0.000166
     24          6           0        8.277001    2.261478   -1.332314
     25          6           0        3.250975    4.821275   -0.085113
     26          6           0        5.186965   -1.278360   -0.004833
     27          6           0        3.761108   -1.200060    0.009510
     28          6           0        5.412530    6.068388   -0.170768
     29          6           0        9.747899    2.320934    1.038933
     30          6           0        3.926982    6.123789   -0.133810
     31          6           0        9.681137    2.209680   -1.385194
     32          6           0       10.423315    2.234990   -0.189801
     33          6           0        7.614230    2.405357    2.420702
     34          1           0        7.033712   -0.187854   -0.034196
     35          1           0        7.188683    4.893178   -0.185532
     36          1           0        3.441564   -3.158288    0.039739
     37          1           0        8.286479    4.257109    2.808478
 ---------------------------------------------------------------------

 Alpha  occ. eigenvalues --  -19.24586 -19.22134 -19.20875 -19.18468 -19.14139
 Alpha  occ. eigenvalues --  -10.39016 -10.32526 -10.32438 -10.32350 -10.32301
 Alpha  occ. eigenvalues --  -10.32298 -10.32248 -10.31954 -10.31242 -10.28966
 Alpha  occ. eigenvalues --  -10.28853 -10.28814 -10.27576 -10.27171 -10.26900
 Alpha  occ. eigenvalues --  -10.26654 -10.26270 -10.25680 -10.24995 -10.24692
 Alpha  occ. eigenvalues --   -1.14966  -1.14635  -1.10712  -1.06896  -1.04751
 Alpha  occ. eigenvalues --   -0.97850  -0.93157  -0.92136  -0.91558  -0.90075
 Alpha  occ. eigenvalues --   -0.87230  -0.86862  -0.85055  -0.83372  -0.80560
 Alpha  occ. eigenvalues --   -0.80198  -0.79111  -0.77799  -0.73132  -0.72269
 Alpha  occ. eigenvalues --   -0.71206  -0.70643  -0.69719  -0.68677  -0.67070
 Alpha  occ. eigenvalues --   -0.66374  -0.65550  -0.63298  -0.62310  -0.61864
 Alpha  occ. eigenvalues --   -0.58873  -0.58233  -0.57670  -0.55795  -0.55263
 Alpha  occ. eigenvalues --   -0.52472  -0.51608  -0.50337  -0.49639  -0.49389
 Alpha  occ. eigenvalues --   -0.48840  -0.48509  -0.47945  -0.47682  -0.47170
 Alpha  occ. eigenvalues --   -0.46793  -0.45648  -0.45573  -0.43885  -0.43239
 Alpha  occ. eigenvalues --   -0.43123  -0.42446  -0.41979  -0.41109  -0.40714
 Alpha  occ. eigenvalues --   -0.40323  -0.39668  -0.39622  -0.38719  -0.37677
 Alpha  occ. eigenvalues --   -0.37318  -0.37199  -0.36739  -0.36355  -0.36244
 Alpha  occ. eigenvalues --   -0.35494  -0.35333  -0.34672  -0.34261  -0.33111
 Alpha  occ. eigenvalues --   -0.32607  -0.32249  -0.31363  -0.29845  -0.29694
 Alpha  occ. eigenvalues --   -0.29267  -0.29187  -0.28643  -0.28081  -0.27354
 Alpha  occ. eigenvalues --   -0.27297  -0.26511  -0.26260  -0.25210  -0.23513
 Alpha virt. eigenvalues --   -0.13214  -0.09194  -0.07826  -0.07410  -0.07008
 Alpha virt. eigenvalues --   -0.05572  -0.05568  -0.05071  -0.04183  -0.03982
 Alpha virt. eigenvalues --   -0.03460  -0.02938  -0.01933   0.01185   0.02595

 Mulliken charges:
               1
     1  I    0.193929
     2  I    0.154037
     3  I    0.193586
     4  I    0.149070
     5  Cl   0.023562
     6  Cl   0.027846
     7  Cl   0.038254
     8  Cl   0.041629
     9  O   -0.306543
    10  O   -0.441430
    11  O   -0.315484
    12  O   -0.423943
    13  O   -0.254233
    14  C    0.223066
    15  C    0.271534
    16  C    0.254944
    17  C    0.317879
    18  C    0.386578
    19  C    0.430140
    20  C   -0.237818
    21  C    0.229877
    22  C   -0.206544
    23  C   -0.733147
    24  C   -0.278259
    25  C   -0.752937
    26  C   -0.699540
    27  C    0.695332
    28  C   -0.601822
    29  C   -0.242296
    30  C    0.446745
    31  C   -0.052358
    32  C   -0.102611
    33  C    0.176722
    34  H    0.282498
    35  H    0.280213
    36  H    0.394011
    37  H    0.437513
 Sum of Mulliken charges =  -0.00000

 Dipole moment (field-independent basis, Debye):
    X=              9.4639    Y=             -9.0441    Z=             -1.9922  Tot=             13.2412
 Quadrupole moment (field-independent basis, Debye-Ang):
   XX=           -163.7695   YY=           -321.6488   ZZ=           -286.3720
   XY=              0.2962   XZ=             -8.9765   YZ=              3.8368

 Normal termination of Gaussian 16 at Fri Jun 14 15:19:23 2024.
