 Gaussian 16, Revision C.01,
 Gaussian 16:  ES64L-G16RevC.01  3-Jul-2019

 ----------------------------------------------------------------------
 # M062X/LANL2DZ TDA=(triplet,root=1) scrf=(solvent=water) int=ultrafin
 e Nosymm geom=checkpoint
 ----------------------------------------------------------------------

 -------------------------------------
 Rose Bengal triplet state calculation
 -------------------------------------
 Structure from the checkpoint file:  "ground_state_opt.chk"
 Charge =  0 Multiplicity = 3

                          Input orientation:
 ---------------------------------------------------------------------
 Center     Atomic      Atomic             Coordinates (Angstroms)
 Number     Number       Type             X           Y           Z
 ---------------------------------------------------------------------
      1         53           0        1.013655    0.182276    0.031209
      2         53           0        1.134778    4.826966   -0.043237
      3         53           0        6.151117   -3.182730    0.023399
      4         53           0        6.438519    7.928411   -0.258731
      5         17           0        7.323262    2.228614   -2.860300
      6         17           0       10.687017    2.307702    2.579613
      7         17           0       10.523413    2.106754   -2.962752
      8         17           0       12.212426    2.152228   -0.237439
      9          8           0        3.269166    2.442599   -0.034625
     10          8           0        2.949106   -2.305673    0.034743
     11          8           0        3.295363    7.224883   -0.147909
     12          8           0        7.743683    3.533533    3.193330
     13          8           0        6.906371    1.472183    2.816343
     14          6           0        6.088455    2.393438   -0.075581
     15          6           0        5.340422    1.158767   -0.047122
     16          6           0        5.423070    3.616747   -0.093880
     17          6           0        7.590142    2.340750   -0.106019
     18          6           0        3.919274    1.217437   -0.028519
     19          6           0        3.967596    3.646004   -0.070394
     20          6           0        5.952931   -0.119764   -0.030905
     21          6           0        8.343949    2.383176    1.091738
     22          6           0        6.105273    4.891596   -0.151072
     23          6           0        3.124951    0.061886    0.000166
     24          6           0        8.277001    2.261478   -1.332314
     25          6           0        3.250975    4.821275   -0.085113
     26          6           0        5.186965   -1.278360   -0.004833
     27          6           0        3.761108   -1.200060    0.009510
     28          6           0        5.412530    6.068388   -0.170768
     29          6           0        9.747899    2.320934    1.038933
     30          6           0        3.926982    6.123789   -0.133810
     31          6           0        9.681137    2.209680   -1.385194
     32          6           0       10.423315    2.234990   -0.189801
     33          6           0        7.614230    2.405357    2.420702
     34          1           0        7.033712   -0.187854   -0.034196
     35          1           0        7.188683    4.893178   -0.185532
     36          1           0        3.441564   -3.158288    0.039739
     37          1           0        8.286479    4.257109    2.808478
 ---------------------------------------------------------------------

 SCF Done:  E(UM062X) =  -1244.92895696     A.U. after   24 cycles

 Excitation energies and oscillator strengths:

 Excited state symmetry could not be determined.
 Excited State   1:  3.039-?Sym    0.8936 eV 1387.53 nm  f=0.0000  <S**2>=2.060
     89B ->110B       -0.11919
     98B ->110B        0.73865
     98B ->111B        0.29457
     98B ->122B       -0.14305
    104B ->110B        0.20238
    105B ->110B        0.29839
    106B ->110B        0.29006
 This state for optimization and/or second-order correction.
 Total Energy, E(CIS/TDA) =  -1244.89611927
 Copying the excited state density for this state as the 1-particle RhoCI density.

 Excited state symmetry could not be determined.
 Excited State   2:  3.054-?Sym    1.0770 eV 1151.19 nm  f=0.0413  <S**2>=2.081
    111A ->119A       -0.10027
     97B ->110B       -0.12481
    108B ->110B        0.24670
    109B ->110B        0.92581

 Excited state symmetry could not be determined.
 Excited State   3:  3.041-?Sym    1.7501 eV  708.43 nm  f=0.0148  <S**2>=2.062
    107B ->110B       -0.17218
    108B ->110B        0.91251
    109B ->110B       -0.26529
    109B ->111B        0.14211

 Alpha  occ. eigenvalues --  -19.74073 -19.71489 -19.70057 -19.68418 -19.66709
 Alpha  occ. eigenvalues --  -10.76274 -10.69578 -10.69537 -10.69474 -10.68954
 Alpha  occ. eigenvalues --  -10.68951 -10.68919 -10.68805 -10.67705 -10.65569
 Alpha  occ. eigenvalues --  -10.65543 -10.65459 -10.64464 -10.64073 -10.63839
 Alpha  occ. eigenvalues --  -10.63664 -10.63188 -10.62135 -10.61078 -10.60670
 Alpha  occ. eigenvalues --   -1.27395  -1.27122  -1.22765  -1.19915  -1.18804
 Alpha  occ. eigenvalues --   -1.08128  -1.02933  -1.02022  -1.01493  -0.99651
 Alpha  occ. eigenvalues --   -0.96091  -0.95364  -0.94369  -0.92908  -0.89866
 Alpha  occ. eigenvalues --   -0.88980  -0.88509  -0.86217  -0.81112  -0.80553
 Alpha  occ. eigenvalues --   -0.79054  -0.78140  -0.77836  -0.76686  -0.74337
 Alpha  occ. eigenvalues --   -0.74062  -0.73347  -0.70444  -0.69793  -0.69527
 Alpha  occ. eigenvalues --   -0.66396  -0.65676  -0.64805  -0.62970  -0.62772
 Alpha  occ. eigenvalues --   -0.59145  -0.58898  -0.58456  -0.57412  -0.56594
 Alpha  occ. eigenvalues --   -0.55606  -0.55334  -0.55029  -0.54360  -0.54047
 Alpha  occ. eigenvalues --   -0.54026  -0.53808  -0.52778  -0.51780  -0.51597
 Alpha  occ. eigenvalues --   -0.50005  -0.49126  -0.48493  -0.48195  -0.47354
 Alpha  occ. eigenvalues --   -0.46960  -0.46205  -0.45989  -0.45655  -0.44763
 Alpha  occ. eigenvalues --   -0.43294  -0.42841  -0.42620  -0.42322  -0.42010
 Alpha  occ. eigenvalues --   -0.41747  -0.41254  -0.40752  -0.40442  -0.39727
 Alpha  occ. eigenvalues --   -0.39494  -0.38511  -0.37817  -0.37529  -0.35160
 Alpha  occ. eigenvalues --   -0.34840  -0.34208  -0.34035  -0.33386  -0.32443
 Alpha  occ. eigenvalues --   -0.32347  -0.31709  -0.31212  -0.30254  -0.29978
 Alpha  occ. eigenvalues --   -0.21900
 Alpha virt. eigenvalues --   -0.05809  -0.04419  -0.03566  -0.03350  -0.02924
 Alpha virt. eigenvalues --   -0.02720  -0.01692  -0.01386  -0.00332  -0.00288
 Alpha virt. eigenvalues --    0.00244   0.02477   0.04003   0.07427   0.07684

  Beta  occ. eigenvalues --  -19.73832 -19.71490 -19.69932 -19.68404 -19.65921
  Beta  occ. eigenvalues --  -10.76277 -10.69577 -10.69534 -10.69472 -10.68923
  Beta  occ. eigenvalues --  -10.68919 -10.68836 -10.68679 -10.67747 -10.65543
  Beta  occ. eigenvalues --  -10.65474 -10.65390 -10.64487 -10.64015 -10.63741
  Beta  occ. eigenvalues --  -10.63733 -10.63241 -10.61745 -10.61001 -10.60676
  Beta  occ. eigenvalues --   -1.27118  -1.26698  -1.22339  -1.18788  -1.17528
  Beta  occ. eigenvalues --   -1.08060  -1.02407  -1.01628  -1.01235  -0.99423
  Beta  occ. eigenvalues --   -0.95778  -0.95289  -0.93826  -0.92569  -0.89541
  Beta  occ. eigenvalues --   -0.88815  -0.87873  -0.86063  -0.80811  -0.79938
  Beta  occ. eigenvalues --   -0.78723  -0.77884  -0.77709  -0.76284  -0.74108
  Beta  occ. eigenvalues --   -0.73824  -0.73279  -0.70216  -0.69377  -0.69096
  Beta  occ. eigenvalues --   -0.66135  -0.65261  -0.64482  -0.62507  -0.62311
  Beta  occ. eigenvalues --   -0.58780  -0.58090  -0.57565  -0.57295  -0.55976
  Beta  occ. eigenvalues --   -0.55547  -0.55039  -0.54872  -0.53870  -0.53693
  Beta  occ. eigenvalues --   -0.53521  -0.52531  -0.51609  -0.50789  -0.49857
  Beta  occ. eigenvalues --   -0.49337  -0.48868  -0.48346  -0.47803  -0.47272
  Beta  occ. eigenvalues --   -0.45759  -0.45257  -0.45071  -0.44697  -0.43255
  Beta  occ. eigenvalues --   -0.42776  -0.42371  -0.42216  -0.42195  -0.41930
  Beta  occ. eigenvalues --   -0.41595  -0.41124  -0.40566  -0.39748  -0.39449
  Beta  occ. eigenvalues --   -0.38778  -0.36903  -0.36151  -0.35972  -0.34824
  Beta  occ. eigenvalues --   -0.34189  -0.34013  -0.33493  -0.33304  -0.32266
  Beta  occ. eigenvalues --   -0.31651  -0.30936  -0.30531  -0.28933
  Beta virt. eigenvalues --   -0.17477  -0.07278  -0.05702  -0.04328  -0.03506
  Beta virt. eigenvalues --   -0.03305  -0.02595  -0.01379  -0.00544  -0.00164
  Beta virt. eigenvalues --    0.00429   0.00456   0.01019   0.02684   0.06776

 Mulliken charges and spin densities:
               1          2
     1  I    0.256131  -0.001943
     2  I    0.322800   0.073281
     3  I    0.261802   0.003823
     4  I    0.233092   0.021582
     5  Cl   0.081130   0.002289
     6  Cl   0.080424   0.001321
     7  Cl   0.089193   0.001206
     8  Cl   0.093374  -0.000005
     9  O   -0.371494   0.079715
    10  O   -0.489849   0.039994
    11  O   -0.279542   0.455271
    12  O   -0.476255  -0.000319
    13  O   -0.274330   0.005087
    14  C    0.175730   0.554443
    15  C    0.255795  -0.036283
    16  C    0.199969   0.118389
    17  C    0.286351  -0.025013
    18  C    0.381154   0.141224
    19  C    0.445953   0.014582
    20  C   -0.231482   0.127016
    21  C    0.196583   0.008544
    22  C   -0.200607  -0.002288
    23  C   -0.774502  -0.094324
    24  C   -0.330008   0.005672
    25  C   -0.760799   0.274265
    26  C   -0.781694  -0.031198
    27  C    0.683110   0.168596
    28  C   -0.682776   0.169622
    29  C   -0.294117  -0.000933
    30  C    0.441763  -0.053059
    31  C   -0.110458  -0.000961
    32  C   -0.163073   0.000735
    33  C    0.238819  -0.006332
    34  H    0.307602  -0.009972
    35  H    0.305283  -0.002413
    36  H    0.420397  -0.001658
    37  H    0.464531   0.000040
 Sum of Mulliken charges =  -0.00000   2.00000

 Dipole moment (field-independent basis, Debye):
    X=              5.9050    Y=             -5.4471    Z=             -2.1199  Tot=              8.3087
 Quadrupole moment (field-independent basis, Debye-Ang):
   XX=           -198.0084   YY=           -295.9308   ZZ=           -291.6454
   XY=              1.3625   XZ=             -9.4810   YZ=              3.0655

 Normal termination of Gaussian 16 at Fri Jun 14 16:41:32 2024.
