 Gaussian 16, Revision C.01,
 Gaussian 16:  ES64L-G16RevC.01  3-Jul-2019

 --------------------
 # opt b3lyp/6-31g(d)
 --------------------

 ---------------------------
 Carbon dioxide optimization
 ---------------------------
 Symbolic Z-matrix:
 Charge =  0 Multiplicity = 1

 SCF Done:  E(RB3LYP) =  -188.577336584     A.U. after   10 cycles
 SCF Done:  E(RB3LYP) =  -188.580935916     A.U. after    9 cycles
 SCF Done:  E(RB3LYP) =  -188.580939451     A.U. after    6 cycles
 Optimization completed.
    -- Stationary point found.

                         Standard orientation:
 ---------------------------------------------------------------------
 Center     Atomic      Atomic             Coordinates (Angstroms)
 Number     Number       Type             X           Y           Z
 ---------------------------------------------------------------------
      1          6           0        0.000000    0.000000    0.000000
      2          8           0        0.000000    0.000000    1.169158
      3          8           0        0.000000    0.000000   -1.169158
 ---------------------------------------------------------------------

 The electronic state is 1-SGG.
 Alpha  occ. eigenvalues --  -19.23659 -19.23658 -10.38530  -1.16098  -1.11964
 Alpha  occ. eigenvalues --   -0.56233  -0.51655  -0.51277  -0.51277  -0.36997
 Alpha  occ. eigenvalues --   -0.36997
 Alpha virt. eigenvalues --    0.02992   0.02992   0.08434   0.36575   0.47261
 Alpha virt. eigenvalues --    0.47261   0.58435   0.73525   0.78154   0.87419
 Alpha virt. eigenvalues --    0.87419   1.03774   1.04166   1.04166   1.37743

 Mulliken charges:
               1
     1  C    0.719473
     2  O   -0.359737
     3  O   -0.359737
 Sum of Mulliken charges =   0.00000

 Dipole moment (field-independent basis, Debye):
    X=             -0.0000    Y=              0.0000    Z=              0.0000  Tot=              0.0000
 Quadrupole moment (field-independent basis, Debye-Ang):
   XX=            -14.4508   YY=            -14.4508   ZZ=            -18.9144
   XY=              0.0000   XZ=              0.0000   YZ=              0.0000

 Normal termination of Gaussian 16 at Tue Jun  4 14:45:08 2024.
