 Gaussian 16, Revision C.01,
 Gaussian 16:  ES64L-G16RevC.01  3-Jul-2019

 -------------------------------------------------------------
 # opt B3LYP/6-311g* scrf=(solvent=water) int=ultrafine Nosymm
 -------------------------------------------------------------

 -------------------------------------------------
 4-nitroanisole ground state geometry optimization
 -------------------------------------------------
 Symbolic Z-matrix:
 Charge =  0 Multiplicity = 1

 SCF Done:  E(RB3LYP) =  -551.415166416     A.U. after   13 cycles
 SCF Done:  E(RB3LYP) =  -551.418310597     A.U. after   12 cycles
 SCF Done:  E(RB3LYP) =  -551.413391165     A.U. after   14 cycles
 SCF Done:  E(RB3LYP) =  -551.419004211     A.U. after   12 cycles
 SCF Done:  E(RB3LYP) =  -551.419484507     A.U. after   11 cycles
 SCF Done:  E(RB3LYP) =  -551.419578604     A.U. after   10 cycles
 SCF Done:  E(RB3LYP) =  -551.419601835     A.U. after   10 cycles
 SCF Done:  E(RB3LYP) =  -551.419604002     A.U. after    9 cycles
 SCF Done:  E(RB3LYP) =  -551.419604400     A.U. after    8 cycles
 Optimization completed.
    -- Stationary point found.

                          Input orientation:
 ---------------------------------------------------------------------
 Center     Atomic      Atomic             Coordinates (Angstroms)
 Number     Number       Type             X           Y           Z
 ---------------------------------------------------------------------
      1          6           0        1.664835    0.926857   -0.841016
      2          8           0        2.694804    0.195603   -0.164680
      3          6           0        3.289944   -0.835851   -0.792773
      4          6           0        4.292208   -1.499911   -0.060540
      5          6           0        4.965904   -2.571033   -0.610962
      6          6           0        4.640863   -2.989057   -1.905668
      7          6           0        3.652003   -2.343810   -2.643842
      8          6           0        2.973755   -1.266461   -2.091325
      9          7           0        5.349628   -4.118667   -2.491734
     10          8           0        5.048982   -4.470197   -3.631585
     11          8           0        6.218897   -4.672478   -1.820250
     12          1           0        1.347019    1.694826   -0.140717
     13          1           0        0.819407    0.279009   -1.083520
     14          1           0        2.050027    1.395454   -1.749474
     15          1           0        4.521157   -1.152385    0.939756
     16          1           0        5.737150   -3.086710   -0.055669
     17          1           0        3.417978   -2.685028   -3.642957
     18          1           0        2.207908   -0.773358   -2.673985
 ---------------------------------------------------------------------

 Alpha  occ. eigenvalues --  -19.17222 -19.15416 -19.15402 -14.55478 -10.26397
 Alpha  occ. eigenvalues --  -10.23407 -10.22792 -10.20610 -10.20426 -10.19492
 Alpha  occ. eigenvalues --  -10.19291  -1.23635  -1.09138  -1.06022  -0.89427
 Alpha  occ. eigenvalues --   -0.81404  -0.78106  -0.74137  -0.68173  -0.64048
 Alpha  occ. eigenvalues --   -0.59838  -0.57153  -0.54403  -0.54295  -0.52935
 Alpha  occ. eigenvalues --   -0.50102  -0.48475  -0.47305  -0.45413  -0.43599
 Alpha  occ. eigenvalues --   -0.43227  -0.40359  -0.38669  -0.34970  -0.34926
 Alpha  occ. eigenvalues --   -0.32313  -0.32245  -0.30216  -0.28348  -0.25222
 Alpha virt. eigenvalues --   -0.09583  -0.03183   0.00446   0.04691   0.06403
 Alpha virt. eigenvalues --    0.08020   0.09925   0.11021   0.11815   0.11824
 Alpha virt. eigenvalues --    0.14176   0.14396   0.16162   0.20970   0.22735

 Mulliken charges:
               1
     1  C   -0.475282
     2  O   -0.335962
     3  C    0.290853
     4  C   -0.242872
     5  C   -0.201006
     6  C    0.210986
     7  C   -0.195857
     8  C   -0.286842
     9  N    0.161318
    10  O   -0.310602
    11  O   -0.310254
    12  H    0.246691
    13  H    0.235953
    14  H    0.235888
    15  H    0.231389
    16  H    0.246029
    17  H    0.247426
    18  H    0.252143
 Sum of Mulliken charges =  -0.00000

 Dipole moment (field-independent basis, Debye):
    X=             -4.6897    Y=              6.0719    Z=              1.5218  Tot=              7.8216
 Quadrupole moment (field-independent basis, Debye-Ang):
   XX=            -98.7947   YY=            -93.1428   ZZ=            -69.6746
   XY=             34.0286   XZ=             18.7310   YZ=            -18.9398

 Normal termination of Gaussian 16 at Fri Jun  7 16:42:57 2024.
