 Gaussian 16, Revision C.01,
 Gaussian 16:  ES64L-G16RevC.01  3-Jul-2019

 ----------------------------------------------------------------------
 # M062X/6-311g* TDA=(triplet,root=1) scrf=(solvent=water) int=ultrafin
 e Nosymm geom=checkpoint
 ----------------------------------------------------------------------

 ----------------------------------------
 4-nitroanisole triplet state calculation
 ----------------------------------------
 Structure from the checkpoint file:  "ground_state_opt.chk"
 Charge =  0 Multiplicity = 3

                          Input orientation:
 ---------------------------------------------------------------------
 Center     Atomic      Atomic             Coordinates (Angstroms)
 Number     Number       Type             X           Y           Z
 ---------------------------------------------------------------------
      1          6           0        1.664835    0.926857   -0.841016
      2          8           0        2.694804    0.195603   -0.164680
      3          6           0        3.289944   -0.835851   -0.792773
      4          6           0        4.292208   -1.499911   -0.060540
      5          6           0        4.965904   -2.571033   -0.610962
      6          6           0        4.640863   -2.989057   -1.905668
      7          6           0        3.652003   -2.343810   -2.643842
      8          6           0        2.973755   -1.266461   -2.091325
      9          7           0        5.349628   -4.118667   -2.491734
     10          8           0        5.048982   -4.470197   -3.631585
     11          8           0        6.218897   -4.672478   -1.820250
     12          1           0        1.347019    1.694826   -0.140717
     13          1           0        0.819407    0.279009   -1.083520
     14          1           0        2.050027    1.395454   -1.749474
     15          1           0        4.521157   -1.152385    0.939756
     16          1           0        5.737150   -3.086710   -0.055669
     17          1           0        3.417978   -2.685028   -3.642957
     18          1           0        2.207908   -0.773358   -2.673985
 ---------------------------------------------------------------------

 SCF Done:  E(UM062X) =  -551.070562812     A.U. after   23 cycles

 Excitation energies and oscillator strengths:

 Excited state symmetry could not be determined.
 Excited State   1:  3.038-?Sym    1.1993 eV 1033.79 nm  f=0.0015  <S**2>=2.058
     41A -> 42A        0.16840
     37B -> 40B        0.82669
     39B -> 40B        0.51472
 This state for optimization and/or second-order correction.
 Total Energy, E(CIS/TDA) =  -551.026488719
 Copying the excited state density for this state as the 1-particle RhoCI density.

 Excited state symmetry could not be determined.
 Excited State   2:  3.018-?Sym    1.5568 eV  796.42 nm  f=0.0106  <S**2>=2.028
     41A -> 42A       -0.40000
     37B -> 40B       -0.41414
     39B -> 40B        0.79994
     39B -> 41B        0.12037

 Excited state symmetry could not be determined.
 Excited State   3:  3.010-?Sym    1.6007 eV  774.56 nm  f=0.0000  <S**2>=2.015
     38B -> 40B        0.94871
     38B -> 41B        0.28023
     38B -> 44B       -0.11637

 Alpha  occ. eigenvalues --  -19.72666 -19.59741 -19.59590 -14.92572 -10.65745
 Alpha  occ. eigenvalues --  -10.63747 -10.61130 -10.59645 -10.59337 -10.57668
 Alpha  occ. eigenvalues --  -10.57551  -1.31717  -1.25801  -1.13152  -1.01950
 Alpha  occ. eigenvalues --   -0.92767  -0.89439  -0.84788  -0.78041  -0.74302
 Alpha  occ. eigenvalues --   -0.69185  -0.65656  -0.61747  -0.61129  -0.60559
 Alpha  occ. eigenvalues --   -0.60028  -0.55950  -0.55685  -0.53525  -0.51914
 Alpha  occ. eigenvalues --   -0.50786  -0.49560  -0.46882  -0.44750  -0.43689
 Alpha  occ. eigenvalues --   -0.37940  -0.36377  -0.35776  -0.35107  -0.34044
 Alpha  occ. eigenvalues --   -0.18096
 Alpha virt. eigenvalues --   -0.01613   0.01111   0.07658   0.09495   0.10883
 Alpha virt. eigenvalues --    0.12825   0.14029   0.14834   0.14867   0.16964
 Alpha virt. eigenvalues --    0.17529   0.20961   0.23529   0.25480   0.28285

  Beta  occ. eigenvalues --  -19.72035 -19.59252 -19.59096 -14.92229 -10.65507
  Beta  occ. eigenvalues --  -10.63531 -10.61145 -10.59588 -10.59330 -10.57596
  Beta  occ. eigenvalues --  -10.57544  -1.30268  -1.23986  -1.11606  -1.00808
  Beta  occ. eigenvalues --   -0.91052  -0.88962  -0.83980  -0.76589  -0.73649
  Beta  occ. eigenvalues --   -0.68331  -0.64795  -0.60560  -0.60335  -0.57037
  Beta  occ. eigenvalues --   -0.55989  -0.55260  -0.54873  -0.53168  -0.51387
  Beta  occ. eigenvalues --   -0.50224  -0.46941  -0.46421  -0.43164  -0.40063
  Beta  occ. eigenvalues --   -0.35473  -0.34668  -0.33269  -0.31307
  Beta virt. eigenvalues --   -0.17558  -0.00782   0.00442   0.07655   0.08005
  Beta virt. eigenvalues --    0.09532   0.10920   0.13215   0.14016   0.14758
  Beta virt. eigenvalues --    0.14984   0.17570   0.19903   0.22193   0.24335

 Mulliken charges and spin densities:
               1          2
     1  C   -0.531366  -0.016180
     2  O   -0.290948   0.228527
     3  C    0.255689   0.379547
     4  C   -0.183399   0.142529
     5  C   -0.250407   0.025431
     6  C    0.289424   0.432525
     7  C   -0.245250   0.146840
     8  C   -0.228176   0.041714
     9  N    0.083075   0.190906
    10  O   -0.447727   0.214268
    11  O   -0.450095   0.215434
    12  H    0.280606  -0.000110
    13  H    0.277911   0.014260
    14  H    0.277886   0.014294
    15  H    0.291400  -0.008414
    16  H    0.282378  -0.005591
    17  H    0.283240  -0.010415
    18  H    0.305759  -0.005565
 Sum of Mulliken charges =  -0.00000   2.00000

 Dipole moment (field-independent basis, Debye):
    X=             -8.5737    Y=             12.1085    Z=              4.4678  Tot=             15.4947
 Quadrupole moment (field-independent basis, Debye-Ang):
   XX=           -131.6043   YY=           -122.7089   ZZ=            -80.0514
   XY=             69.1284   XZ=             38.0385   YZ=            -36.8506

 Normal termination of Gaussian 16 at Fri Jun  7 17:05:09 2024.
