 Gaussian 16, Revision C.01,
 Gaussian 16:  ES64L-G16RevC.01  3-Jul-2019

 -------------------------------------------------------------
 # opt B3LYP/6-311g* scrf=(solvent=water) int=ultrafine Nosymm
 -------------------------------------------------------------

 -------------------------------------------------
 3-nitroanisole ground state geometry optimization
 -------------------------------------------------
 Symbolic Z-matrix:
 Charge =  0 Multiplicity = 1

 SCF Done:  E(RB3LYP) =  -551.414245377     A.U. after   13 cycles
 SCF Done:  E(RB3LYP) =  -551.416189369     A.U. after   11 cycles
 SCF Done:  E(RB3LYP) =  -551.415666287     A.U. after   11 cycles
 SCF Done:  E(RB3LYP) =  -551.416163337     A.U. after   11 cycles
 SCF Done:  E(RB3LYP) =  -551.416321098     A.U. after    6 cycles
 SCF Done:  E(RB3LYP) =  -551.416344606     A.U. after   10 cycles
 SCF Done:  E(RB3LYP) =  -551.416347093     A.U. after    9 cycles
 SCF Done:  E(RB3LYP) =  -551.416347881     A.U. after    8 cycles
 SCF Done:  E(RB3LYP) =  -551.416348184     A.U. after    8 cycles
 Optimization completed.
    -- Stationary point found.

                          Input orientation:
 ---------------------------------------------------------------------
 Center     Atomic      Atomic             Coordinates (Angstroms)
 Number     Number       Type             X           Y           Z
 ---------------------------------------------------------------------
      1          8           0        1.053077    0.133697   -0.033524
      2          8           0        1.422440   -3.320923   -3.669750
      3          8           0       -0.239160   -2.905381   -4.990767
      4          7           0        0.430912   -2.673715   -3.990342
      5          6           0        0.402874   -0.231458   -1.164207
      6          6           0        0.020797   -1.553432   -3.124002
      7          6           0        0.786234   -1.290090   -1.988298
      8          6           0       -0.729327    0.530977   -1.497223
      9          6           0       -1.100973   -0.814308   -3.472510
     10          6           0       -1.467242    0.240020   -2.635650
     11          6           0        2.209196   -0.608227    0.362515
     12          1           0        1.646976   -1.906355   -1.778615
     13          1           0       -1.010200    1.349097   -0.843888
     14          1           0       -1.663025   -1.056423   -4.362869
     15          1           0       -2.337991    0.838317   -2.877151
     16          1           0        2.555545   -0.141943    1.281527
     17          1           0        1.958736   -1.654691    0.555925
     18          1           0        2.994758   -0.548822   -0.395421
 ---------------------------------------------------------------------

 Alpha  occ. eigenvalues --  -19.16512 -19.16203 -19.16157 -14.56060 -10.25811
 Alpha  occ. eigenvalues --  -10.24355 -10.22546 -10.19963 -10.19763 -10.19711
 Alpha  occ. eigenvalues --  -10.19528  -1.24441  -1.08444  -1.06893  -0.89439
 Alpha  occ. eigenvalues --   -0.81546  -0.77682  -0.73017  -0.70034  -0.62381
 Alpha  occ. eigenvalues --   -0.60341  -0.57468  -0.54882  -0.53389  -0.52008
 Alpha  occ. eigenvalues --   -0.50844  -0.49858  -0.48101  -0.46149  -0.43336
 Alpha  occ. eigenvalues --   -0.40367  -0.40246  -0.38652  -0.35567  -0.34591
 Alpha  occ. eigenvalues --   -0.32834  -0.32649  -0.30825  -0.28551  -0.24802
 Alpha virt. eigenvalues --   -0.10227  -0.02139  -0.00338   0.04814   0.06117
 Alpha virt. eigenvalues --    0.09058   0.09765   0.10792   0.11859   0.11893
 Alpha virt. eigenvalues --    0.13195   0.14189   0.15816   0.21638   0.23452

 Mulliken charges:
               1
     1  O   -0.348792
     2  O   -0.297660
     3  O   -0.294094
     4  N    0.172415
     5  C    0.267904
     6  C    0.223333
     7  C   -0.302656
     8  C   -0.207808
     9  C   -0.205432
    10  C   -0.209807
    11  C   -0.474726
    12  H    0.263678
    13  H    0.230405
    14  H    0.244578
    15  H    0.231034
    16  H    0.244790
    17  H    0.231401
    18  H    0.231437
 Sum of Mulliken charges =  -0.00000

 Dipole moment (field-independent basis, Debye):
    X=             -0.1113    Y=              3.3136    Z=              3.7739  Tot=              5.0235
 Quadrupole moment (field-independent basis, Debye-Ang):
   XX=            -56.2980   YY=            -77.0595   ZZ=            -83.7697
   XY=             -0.5101   XZ=              8.1583   YZ=            -19.9489

 Normal termination of Gaussian 16 at Fri Jun  7 12:56:38 2024.
