 Gaussian 16, Revision C.01,
 Gaussian 16:  ES64L-G16RevC.01  3-Jul-2019

 ----------------------------------------------------------------------
 # M062X/6-311g* TDA=(triplet,root=1) scrf=(solvent=water) int=ultrafin
 e Nosymm geom=checkpoint
 ----------------------------------------------------------------------

 ----------------------------------------
 3-nitroanisole triplet state calculation
 ----------------------------------------
 Structure from the checkpoint file:  "ground_state_opt.chk"
 Charge =  0 Multiplicity = 3

                          Input orientation:
 ---------------------------------------------------------------------
 Center     Atomic      Atomic             Coordinates (Angstroms)
 Number     Number       Type             X           Y           Z
 ---------------------------------------------------------------------
      1          8           0        1.053077    0.133697   -0.033524
      2          8           0        1.422440   -3.320923   -3.669750
      3          8           0       -0.239160   -2.905381   -4.990767
      4          7           0        0.430912   -2.673715   -3.990342
      5          6           0        0.402874   -0.231458   -1.164207
      6          6           0        0.020797   -1.553432   -3.124002
      7          6           0        0.786234   -1.290090   -1.988298
      8          6           0       -0.729327    0.530977   -1.497223
      9          6           0       -1.100973   -0.814308   -3.472510
     10          6           0       -1.467242    0.240020   -2.635650
     11          6           0        2.209196   -0.608227    0.362515
     12          1           0        1.646976   -1.906355   -1.778615
     13          1           0       -1.010200    1.349097   -0.843888
     14          1           0       -1.663025   -1.056423   -4.362869
     15          1           0       -2.337991    0.838317   -2.877151
     16          1           0        2.555545   -0.141943    1.281527
     17          1           0        1.958736   -1.654691    0.555925
     18          1           0        2.994758   -0.548822   -0.395421
 ---------------------------------------------------------------------

 SCF Done:  E(UM062X) =  -551.073217082     A.U. after   23 cycles

 Excitation energies and oscillator strengths:

 Excited state symmetry could not be determined.
 Excited State   1:  3.025-?Sym    1.1365 eV 1090.91 nm  f=0.0006  <S**2>=2.037
     37B -> 40B        0.94620
     39B -> 40B        0.27024
 This state for optimization and/or second-order correction.
 Total Energy, E(CIS/TDA) =  -551.031450889
 Copying the excited state density for this state as the 1-particle RhoCI density.

 Excited state symmetry could not be determined.
 Excited State   2:  3.020-?Sym    1.7812 eV  696.07 nm  f=0.0038  <S**2>=2.031
     41A -> 42A        0.90205
     35B -> 40B        0.12418
     37B -> 40B       -0.18260
     39B -> 40B        0.34777

 Excited state symmetry could not be determined.
 Excited State   3:  3.027-?Sym    1.8546 eV  668.51 nm  f=0.0021  <S**2>=2.041
     41A -> 42A       -0.37602
     41A -> 43A        0.20988
     37B -> 40B       -0.22087
     39B -> 40B        0.86489

 Alpha  occ. eigenvalues --  -19.73679 -19.59970 -19.59348 -14.93009 -10.67827
 Alpha  occ. eigenvalues --  -10.61296 -10.61130 -10.59388 -10.58290 -10.58163
 Alpha  occ. eigenvalues --  -10.57942  -1.31770  -1.26340  -1.13293  -1.01827
 Alpha  occ. eigenvalues --   -0.92312  -0.89582  -0.83983  -0.79745  -0.72320
 Alpha  occ. eigenvalues --   -0.69974  -0.64868  -0.61292  -0.60716  -0.60434
 Alpha  occ. eigenvalues --   -0.59656  -0.58885  -0.56026  -0.54151  -0.52119
 Alpha  occ. eigenvalues --   -0.49626  -0.48193  -0.46613  -0.45112  -0.44766
 Alpha  occ. eigenvalues --   -0.37615  -0.35984  -0.35821  -0.35028  -0.34074
 Alpha  occ. eigenvalues --   -0.18266
 Alpha virt. eigenvalues --   -0.01114   0.01545   0.07853   0.09144   0.11785
 Alpha virt. eigenvalues --    0.12442   0.13609   0.14741   0.15111   0.16502
 Alpha virt. eigenvalues --    0.17057   0.20661   0.25304   0.26120   0.28179

  Beta  occ. eigenvalues --  -19.73119 -19.59507 -19.58945 -14.92711 -10.67738
  Beta  occ. eigenvalues --  -10.61308 -10.61074 -10.59116 -10.58205 -10.58076
  Beta  occ. eigenvalues --  -10.57905  -1.30547  -1.24749  -1.11940  -1.00676
  Beta  occ. eigenvalues --   -0.90989  -0.88762  -0.83146  -0.78116  -0.71713
  Beta  occ. eigenvalues --   -0.68986  -0.63907  -0.60516  -0.59645  -0.57956
  Beta  occ. eigenvalues --   -0.57609  -0.56301  -0.55065  -0.53903  -0.51511
  Beta  occ. eigenvalues --   -0.47604  -0.47003  -0.46190  -0.44552  -0.40288
  Beta  occ. eigenvalues --   -0.35235  -0.33934  -0.33384  -0.31831
  Beta virt. eigenvalues --   -0.17293  -0.01595   0.02061   0.07444   0.07819
  Beta virt. eigenvalues --    0.09099   0.11983   0.12637   0.13616   0.14669
  Beta virt. eigenvalues --    0.15228   0.16631   0.19961   0.21133   0.26220

 Mulliken charges and spin densities:
               1          2
     1  O   -0.285448   0.213232
     2  O   -0.457976   0.173510
     3  O   -0.442345   0.202686
     4  N    0.111644   0.184030
     5  C    0.309568   0.190440
     6  C    0.173476   0.102068
     7  C   -0.274907   0.172287
     8  C   -0.219998   0.442320
     9  C   -0.146394   0.565344
    10  C   -0.236853  -0.206112
    11  C   -0.532805  -0.013665
    12  H    0.304624  -0.012039
    13  H    0.283674  -0.020540
    14  H    0.295196  -0.023917
    15  H    0.273036   0.004280
    16  H    0.283209  -0.000113
    17  H    0.281195   0.013113
    18  H    0.281105   0.013076
 Sum of Mulliken charges =  -0.00000   2.00000

 Dipole moment (field-independent basis, Debye):
    X=             -0.4427    Y=              8.2853    Z=              9.2359  Tot=             12.4155
 Quadrupole moment (field-independent basis, Debye-Ang):
   XX=            -54.2809   YY=            -93.4521   ZZ=           -110.1176
   XY=              2.7839   XZ=             14.5643   YZ=            -42.2523

 Normal termination of Gaussian 16 at Fri Jun  7 13:19:35 2024.
